/*--------------------------------*- C++ -*----------------------------------*\
  =========                 |
  \\      /  F ield         | OpenFOAM: The Open Source CFD Toolbox
   \\    /   O peration     | Website:  https://openfoam.org
    \\  /    A nd           | Version:  7
     \\/     M anipulation  |
\*---------------------------------------------------------------------------*/
FoamFile
{
    version     2.0;
    format      ascii;
    class       surfaceScalarField;
    location    "0";
    object      phiSolid;
}
// * * * * * * * * * * * * * * * * * * * * * * * * * * * * * * * * * * * * * //

dimensions      [0 3 -1 0 0 0 0];

internalField   nonuniform List<scalar> 
24692
(
-0.656459
-4.36651
-1.10437
-4.31832
-1.37758
-4.30284
-1.53521
-4.27443
-1.61605
-4.23983
-1.64562
-4.20304
-1.64076
-4.1664
-1.61268
-4.13117
-1.56883
-4.09802
-1.51422
-4.06724
-1.45224
-4.03888
-1.38518
-4.01291
-1.3146
-3.98921
-1.24158
-3.96763
-1.16687
-3.94803
-1.09099
-3.93027
-1.01429
-3.91421
-0.937049
-3.89973
-0.859431
-3.88672
-0.781568
-3.87508
-0.703547
-3.86474
-0.625433
-3.85561
-0.547266
-3.84764
-0.469076
-3.84078
-0.390879
-3.83497
-0.312686
-3.83018
-0.234502
-3.82639
-0.156328
-3.82356
-0.0781623
-3.82168
-4.26242e-07
-3.82075
0.0781614
-3.82075
0.156327
-3.82168
0.234501
-3.82356
0.312685
-3.82639
0.390877
-3.83018
0.469074
-3.83497
0.547264
-3.84078
0.625431
-3.84764
0.703545
-3.85561
0.781565
-3.86474
0.859428
-3.87508
0.937046
-3.88672
1.01429
-3.89973
1.09098
-3.91421
1.16687
-3.93027
1.24158
-3.94803
1.3146
-3.96763
1.38518
-3.98921
1.45224
-4.01291
1.51422
-4.03888
1.56883
-4.06723
1.61268
-4.09802
1.64077
-4.13117
1.64562
-4.16639
1.61606
-4.20304
1.53522
-4.23982
1.37758
-4.27442
1.10438
-4.30284
0.656457
-4.31832
-4.36651
-0.184395
-4.18211
-0.362556
-4.14015
-0.521134
-4.14426
-0.653224
-4.14233
-0.7576
-4.13544
-0.835871
-4.12476
-0.890876
-4.11138
-0.925809
-4.09623
-0.943771
-4.08005
-0.947568
-4.06343
-0.939635
-4.04681
-0.922033
-4.03051
-0.896479
-4.01475
-0.864391
-3.99971
-0.826932
-3.98548
-0.785053
-3.97214
-0.739531
-3.95972
-0.691003
-3.94825
-0.639992
-3.93772
-0.586927
-3.92814
-0.532165
-3.91949
-0.476003
-3.91177
-0.418689
-3.90495
-0.360437
-3.89902
-0.301427
-3.89397
-0.241818
-3.88978
-0.181749
-3.88644
-0.121347
-3.88395
-0.0607274
-3.88229
-9.35748e-07
-3.88147
0.0607255
-3.88147
0.121345
-3.88229
0.181747
-3.88395
0.241816
-3.88644
0.301426
-3.88978
0.360435
-3.89397
0.418688
-3.89902
0.476001
-3.90495
0.532164
-3.91177
0.586926
-3.91949
0.639991
-3.92814
0.691003
-3.93772
0.739531
-3.94825
0.785053
-3.95972
0.826933
-3.97214
0.864393
-3.98548
0.896481
-3.99971
0.922035
-4.01475
0.939638
-4.0305
0.947572
-4.04681
0.943775
-4.06343
0.925813
-4.08005
0.890881
-4.09623
0.835876
-4.11138
0.757604
-4.12476
0.653228
-4.13544
0.521136
-4.14233
0.362556
-4.14425
0.184392
-4.14014
-4.18211
-0.0824356
-4.09967
-0.165147
-4.05741
-0.245554
-4.06382
-0.320381
-4.06748
-0.387285
-4.06851
-0.44485
-4.06717
-0.492429
-4.06378
-0.529954
-4.05868
-0.557752
-4.05223
-0.576404
-4.04475
-0.586631
-4.03655
-0.589215
-4.02789
-0.584945
-4.01899
-0.574585
-4.01004
-0.558847
-4.00119
-0.538392
-3.99257
-0.513813
-3.98427
-0.485646
-3.97639
-0.454371
-3.96897
-0.420411
-3.96207
-0.384146
-3.95573
-0.345913
-3.94997
-0.306013
-3.94482
-0.264715
-3.94029
-0.222264
-3.93639
-0.178884
-3.93313
-0.13478
-3.93052
-0.0901441
-3.92856
-0.0451589
-3.92725
-8.97394e-07
-3.9266
0.0451572
-3.9266
0.0901423
-3.92725
0.134778
-3.92856
0.178883
-3.93052
0.222263
-3.93313
0.264714
-3.93639
0.306011
-3.94029
0.345912
-3.94482
0.384146
-3.94997
0.420411
-3.95573
0.45437
-3.96207
0.485647
-3.96897
0.513813
-3.97639
0.538393
-3.98427
0.558849
-3.99257
0.574586
-4.00119
0.584947
-4.01004
0.589218
-4.01899
0.586634
-4.02789
0.576408
-4.03655
0.557756
-4.04475
0.529958
-4.05222
0.492433
-4.05868
0.444854
-4.06378
0.387289
-4.06717
0.320385
-4.06851
0.245558
-4.06747
0.165148
-4.06382
0.0824337
-4.05741
-4.09966
-0.0441519
-4.05551
-0.0886795
-4.01288
-0.132978
-4.01952
-0.175798
-4.02466
-0.216012
-4.0283
-0.252689
-4.03049
-0.285122
-4.03134
-0.312836
-4.03096
-0.335556
-4.0295
-0.353185
-4.02712
-0.365762
-4.02397
-0.373438
-4.02021
-0.376435
-4.01599
-0.375031
-4.01144
-0.369533
-4.00668
-0.360267
-4.00183
-0.34756
-3.99697
-0.33174
-3.9922
-0.31312
-3.98758
-0.292005
-3.98318
-0.268682
-3.97905
-0.243425
-3.97522
-0.216491
-3.97175
-0.188124
-3.96865
-0.158553
-3.96595
-0.127998
-3.96368
-0.0966671
-3.96185
-0.0647616
-3.96046
-0.032476
-3.95953
-1.67706e-06
-3.95906
0.0324727
-3.95906
0.0647583
-3.95953
0.0966639
-3.96046
0.127995
-3.96185
0.15855
-3.96368
0.188121
-3.96595
0.216488
-3.96865
0.243423
-3.97175
0.26868
-3.97522
0.292003
-3.97905
0.313118
-3.98318
0.331738
-3.98758
0.347559
-3.9922
0.360266
-3.99698
0.369533
-4.00183
0.375031
-4.00669
0.376436
-4.01144
0.373439
-4.01599
0.365764
-4.02021
0.353187
-4.02397
0.335559
-4.02712
0.312839
-4.0295
0.285126
-4.03096
0.252693
-4.03134
0.216017
-4.03049
0.175804
-4.02829
0.132984
-4.02465
0.0886867
-4.01951
0.0441594
-4.01287
-4.0555
-0.0257875
-4.0297
-0.0518054
-3.98684
-0.0778987
-3.9934
-0.103507
-3.99902
-0.128084
-4.00369
-0.151126
-4.00743
-0.172192
-4.01025
-0.190921
-4.01221
-0.207034
-4.01336
-0.220336
-4.01379
-0.230707
-4.01357
-0.238099
-4.0128
-0.24252
-4.01154
-0.244029
-4.0099
-0.242725
-4.00796
-0.238739
-4.00579
-0.23222
-4.00347
-0.223339
-4.00106
-0.212275
-3.99862
-0.199215
-3.99621
-0.184347
-3.99389
-0.167864
-3.99168
-0.149953
-3.98963
-0.130802
-3.98777
-0.110596
-3.98613
-0.0895167
-3.98473
-0.0677422
-3.98359
-0.0454492
-3.98272
-0.0228115
-3.98214
-2.01638e-06
-3.98185
0.0228076
-3.98185
0.0454453
-3.98214
0.0677383
-3.98273
0.0895129
-3.98359
0.110592
-3.98473
0.130799
-3.98613
0.149949
-3.98777
0.167861
-3.98963
0.184345
-3.99168
0.199212
-3.99389
0.212273
-3.99621
0.223337
-3.99862
0.232218
-4.00106
0.238737
-4.00347
0.242725
-4.00579
0.244029
-4.00796
0.24252
-4.00991
0.2381
-4.01155
0.230709
-4.0128
0.220339
-4.01358
0.207038
-4.01379
0.190926
-4.01336
0.172198
-4.01221
0.151133
-4.01025
0.128092
-4.00743
0.103516
-4.00369
0.0779074
-3.99902
0.0518134
-3.9934
0.0257931
-3.98684
-4.0297
-0.015806
-4.0139
-0.0317709
-3.97089
-0.0478367
-3.97735
-0.0637164
-3.98316
-0.0791198
-3.9883
-0.0937681
-3.99279
-0.1074
-3.99663
-0.119786
-3.99983
-0.130725
-4.00243
-0.140059
-4.00447
-0.147663
-4.00598
-0.153455
-4.00701
-0.157385
-4.00762
-0.159437
-4.00786
-0.159625
-4.00778
-0.157991
-4.00743
-0.154593
-4.00687
-0.149514
-4.00614
-0.142848
-4.00529
-0.134703
-4.00436
-0.125194
-4.0034
-0.114448
-4.00243
-0.102591
-4.00149
-0.0897595
-4.00061
-0.0760876
-3.99981
-0.0617146
-3.99911
-0.0467791
-3.99853
-0.0314217
-3.99809
-0.0157825
-3.99778
-2.52188e-06
-3.99763
0.0157775
-3.99763
0.0314167
-3.99778
0.0467741
-3.99809
0.0617096
-3.99853
0.0760827
-3.99911
0.0897546
-3.99981
0.102586
-4.00061
0.114443
-4.00149
0.12519
-4.00243
0.134698
-4.0034
0.142843
-4.00437
0.14951
-4.00529
0.154589
-4.00614
0.157986
-4.00687
0.159621
-4.00743
0.159433
-4.00778
0.157381
-4.00786
0.153452
-4.00762
0.147661
-4.00701
0.140057
-4.00598
0.130723
-4.00447
0.119785
-4.00243
0.1074
-3.99983
0.093768
-3.99663
0.0791205
-3.99279
0.0637182
-3.9883
0.0478399
-3.98315
0.0317762
-3.97734
0.0158144
-3.97088
-4.01389
-0.0100129
-4.00387
-0.020117
-3.96077
-0.0303048
-3.96714
-0.0404142
-3.97303
-0.0502786
-3.97842
-0.0597349
-3.98332
-0.0686248
-3.98772
-0.0768042
-3.99164
-0.0841401
-3.99508
-0.0905207
-3.99807
-0.0958501
-4.00063
-0.100056
-4.00279
-0.103084
-4.00458
-0.104902
-4.00603
-0.105495
-4.00717
-0.10487
-4.00804
-0.103045
-4.00868
-0.100058
-4.00911
-0.0959568
-4.00937
-0.090803
-4.0095
-0.0846654
-4.00952
-0.0776244
-4.00945
-0.0697644
-4.00933
-0.0611781
-4.00918
-0.0519606
-4.00901
-0.042213
-4.00884
-0.0320372
-4.00869
-0.0215391
-4.00857
-0.0108249
-4.00848
-2.68546e-06
-4.00843
0.0108196
-4.00843
0.0215338
-4.00848
0.0320319
-4.00857
0.0422076
-4.00869
0.0519554
-4.00884
0.0611728
-4.00901
0.0697592
-4.00918
0.0776193
-4.00933
0.0846604
-4.00945
0.090798
-4.00952
0.095952
-4.0095
0.100054
-4.00937
0.103041
-4.00911
0.104866
-4.00868
0.105491
-4.00804
0.104898
-4.00717
0.10308
-4.00603
0.100053
-4.00458
0.0958477
-4.00279
0.0905189
-4.00063
0.084139
-3.99807
0.0768039
-3.99508
0.0686254
-3.99164
0.0597363
-3.98772
0.050281
-3.98332
0.0404175
-3.97842
0.0303088
-3.97303
0.0201211
-3.96714
0.0100165
-3.96077
-4.00388
-0.00647484
-3.99741
-0.0130208
-3.95425
-0.0196255
-3.96056
-0.0261927
-3.96649
-0.0326218
-3.97202
-0.0388143
-3.97715
-0.0446712
-3.98189
-0.0501013
-3.98623
-0.0550172
-3.99018
-0.0593437
-3.99376
-0.063012
-3.99698
-0.0659687
-3.99985
-0.068168
-4.00239
-0.0695809
-4.00463
-0.0701861
-4.00658
-0.0699788
-4.00826
-0.0689609
-4.00971
-0.0671501
-4.01093
-0.0645691
-4.01197
-0.0612545
-4.01283
-0.0572469
-4.01354
-0.0525978
-4.01411
-0.047362
-4.01458
-0.0416029
-4.01495
-0.0353855
-4.01523
-0.0287817
-4.01545
-0.0218641
-4.01562
-0.0147097
-4.01573
-0.00739601
-4.0158
-2.63166e-06
-4.01584
0.00739081
-4.01584
0.0147044
-4.0158
0.0218588
-4.01573
0.0287763
-4.01562
0.0353802
-4.01545
0.0415974
-4.01523
0.0473566
-4.01495
0.0525922
-4.01458
0.0572413
-4.01411
0.0612488
-4.01354
0.0645633
-4.01283
0.0671441
-4.01197
0.0689549
-4.01093
0.0699726
-4.0097
0.0701799
-4.00826
0.0695746
-4.00657
0.0681616
-4.00463
0.0659622
-4.00239
0.0630055
-3.99985
0.0593372
-3.99698
0.0550108
-3.99376
0.050095
-3.99018
0.044665
-3.98622
0.0388084
-3.98188
0.0326162
-3.97714
0.0261878
-3.97201
0.0196218
-3.96648
0.0130194
-3.96056
0.00647754
-3.95424
-3.99741
-0.00426884
-3.99314
-0.0085756
-3.94993
-0.012925
-3.95621
-0.0172566
-3.96215
-0.0215062
-3.96776
-0.025612
-3.97303
-0.0295098
-3.97798
-0.0331413
-3.98259
-0.0364481
-3.98687
-0.0393806
-3.99082
-0.0418902
-3.99446
-0.0439401
-3.99779
-0.045495
-4.00082
-0.0465327
-4.00358
-0.0470335
-4.00606
-0.0469906
-4.00829
-0.0463999
-4.01028
-0.0452698
-4.01205
-0.0436111
-4.01361
-0.0414458
-4.01498
-0.038798
-4.01617
-0.0357016
-4.01719
-0.0321917
-4.01807
-0.0283117
-4.01881
-0.0241057
-4.01942
-0.0196241
-4.01992
-0.0149177
-4.02031
-0.0100415
-4.02059
-0.00505058
-4.02078
-2.39944e-06
-4.02087
0.00504585
-4.02087
0.0100367
-4.02078
0.0149129
-4.02059
0.0196192
-4.02031
0.0241009
-4.01992
0.0283068
-4.01942
0.0321868
-4.01881
0.0356966
-4.01807
0.038793
-4.01719
0.0414407
-4.01617
0.043606
-4.01498
0.0452647
-4.01361
0.0463948
-4.01205
0.0469855
-4.01028
0.0470284
-4.00829
0.0465276
-4.00606
0.0454901
-4.00358
0.0439352
-4.00082
0.0418856
-3.99779
0.0393762
-3.99446
0.036444
-3.99082
0.0331375
-3.98686
0.0295065
-3.98259
0.0256092
-3.97798
0.021504
-3.97303
0.0172549
-3.96775
0.0129239
-3.96214
0.00857487
-3.9562
0.00426826
-3.94993
-3.99314
-0.0028426
-3.99031
-0.0057214
-3.94708
-0.00862724
-3.95332
-0.0115227
-3.95927
-0.0143663
-3.96493
-0.0171187
-3.9703
-0.0197376
-3.97538
-0.0221856
-3.98016
-0.0244226
-3.98465
-0.0264165
-3.98884
-0.028133
-3.99276
-0.0295471
-3.99639
-0.0306328
-3.99975
-0.0313746
-4.00285
-0.0317559
-4.00569
-0.0317714
-4.00829
-0.031415
-4.01065
-0.0306914
-4.01278
-0.0296049
-4.0147
-0.0281701
-4.01642
-0.0264008
-4.01795
-0.02432
-4.01928
-0.0219502
-4.02045
-0.0193214
-4.02145
-0.0164632
-4.02229
-0.0134109
-4.02298
-0.0101995
-4.02353
-0.00686816
-4.02393
-0.00345537
-4.0242
-2.01855e-06
-4.02433
0.00345141
-4.02433
0.0068641
-4.0242
0.0101955
-4.02393
0.0134068
-4.02353
0.0164591
-4.02298
0.0193172
-4.02229
0.021946
-4.02145
0.0243156
-4.02045
0.0263963
-4.01928
0.0281654
-4.01794
0.0296001
-4.01642
0.0306863
-4.0147
0.0314098
-4.01278
0.031766
-4.01065
0.0317504
-4.00829
0.0313688
-4.00569
0.0306268
-4.00285
0.0295408
-3.99975
0.0281265
-3.99639
0.0264097
-3.99275
0.0244157
-3.98884
0.0221783
-3.98464
0.0197302
-3.98015
0.0171112
-3.97537
0.0143589
-3.9703
0.0115155
-3.96493
0.00862107
-3.95926
0.00571721
-3.95331
0.00284245
-3.94707
-3.9903
-0.00192356
-3.98838
-0.00386402
-3.94513
-0.00582453
-3.95136
-0.00778003
-3.95731
-0.00970218
-3.963
-0.0115655
-3.96843
-0.0133408
-3.97359
-0.0150039
-3.97849
-0.0165272
-3.98311
-0.0178896
-3.98747
-0.0190667
-3.99157
-0.0200423
-3.9954
-0.0207969
-3.99898
-0.0213204
-4.00231
-0.0215995
-4.0054
-0.0216309
-4.00824
-0.021408
-4.01086
-0.0209346
-4.01324
-0.0202115
-4.01541
-0.0192487
-4.01737
-0.0180541
-4.01912
-0.0166439
-4.02068
-0.0150322
-4.02205
-0.0132401
-4.02323
-0.0112873
-4.02423
-0.0091988
-4.02505
-0.00699845
-4.02571
-0.00471392
-4.0262
-0.00237201
-4.02652
-1.62232e-06
-4.02669
0.00236884
-4.02669
0.00471066
-4.02652
0.00699526
-4.0262
0.0091955
-4.02571
0.0112841
-4.02505
0.0132367
-4.02423
0.0150288
-4.02323
0.0166404
-4.02205
0.0180507
-4.02068
0.0192451
-4.01912
0.0202079
-4.01737
0.0209309
-4.01541
0.0214044
-4.01324
0.0216271
-4.01086
0.0215957
-4.00824
0.0213165
-4.0054
0.0207931
-4.00231
0.0200384
-3.99898
0.0190629
-3.9954
0.0178858
-3.99157
0.0165235
-3.98747
0.0150004
-3.98311
0.0133375
-3.97848
0.0115624
-3.97359
0.00969944
-3.96843
0.00777761
-3.963
0.00582255
-3.95731
0.00386228
-3.95135
0.00192205
-3.94513
-3.98838
-0.00130583
-3.98709
-0.0026329
-3.94383
-0.00397162
-3.95004
-0.00530658
-3.956
-0.00661862
-3.96171
-0.00789162
-3.96718
-0.0091052
-3.9724
-0.010244
-3.97736
-0.0112882
-3.98208
-0.0122246
-3.98655
-0.0130351
-3.99077
-0.0137099
-3.99474
-0.014234
-3.99847
-0.0146014
-4.00196
-0.0148015
-4.00521
-0.0148326
-4.00822
-0.0146888
-4.01101
-0.0143733
-4.01357
-0.013885
-4.01591
-0.0132315
-4.01803
-0.012417
-4.01995
-0.0114532
-4.02165
-0.0103488
-4.02316
-0.00911911
-4.02446
-0.00777681
-4.02558
-0.00633991
-4.0265
-0.00482448
-4.02723
-0.00325025
-4.02778
-0.00163566
-4.02814
-1.17326e-06
-4.02833
0.00163339
-4.02833
0.00324789
-4.02814
0.00482218
-4.02778
0.00633748
-4.02723
0.00777442
-4.0265
0.00911658
-4.02558
0.0103463
-4.02446
0.0114506
-4.02316
0.0124143
-4.02165
0.0132286
-4.01994
0.013882
-4.01803
0.0143701
-4.01591
0.0146856
-4.01357
0.0148291
-4.01101
0.0147978
-4.00822
0.0145974
-4.00521
0.0142298
-4.00196
0.0137054
-3.99847
0.0130304
-3.99474
0.0122196
-3.99077
0.0112829
-3.98655
0.0102384
-3.98208
0.00909937
-3.97736
0.00788549
-3.97239
0.00661241
-3.96717
0.00530042
-3.9617
0.00396612
-3.95599
0.00262893
-3.95003
0.00130539
-3.94382
-3.98708
-0.000902489
-3.98618
-0.0018136
-3.94291
-0.00273372
-3.94911
-0.0036523
-3.95507
-0.00455544
-3.9608
-0.00543248
-3.9663
-0.00626865
-3.97155
-0.00705452
-3.97657
-0.00777518
-3.98135
-0.00842283
-3.9859
-0.00898385
-3.9902
-0.00945249
-3.99427
-0.00981711
-3.9981
-0.0100749
-4.00169
-0.0102167
-4.00505
-0.0102428
-4.00819
-0.0101474
-4.01109
-0.00993386
-4.01377
-0.00959995
-4.01623
-0.00915208
-4.01847
-0.00859163
-4.02049
-0.00792774
-4.0223
-0.00716537
-4.0239
-0.0063159
-4.0253
-0.00538739
-4.02649
-0.00439301
-4.02748
-0.00334339
-4.02827
-0.00225276
-4.02886
-0.0011337
-4.02925
-7.6767e-07
-4.02944
0.00113225
-4.02944
0.00225121
-4.02925
0.00334191
-4.02886
0.00439143
-4.02827
0.00538586
-4.02748
0.00631424
-4.02649
0.00716376
-4.0253
0.007926
-4.0239
0.00858991
-4.0223
0.00915022
-4.02049
0.00959809
-4.01847
0.00993185
-4.01623
0.0101454
-4.01377
0.0102406
-4.01109
0.0102145
-4.00818
0.0100726
-4.00505
0.00981481
-4.00169
0.00945006
-3.99809
0.00898145
-3.99426
0.00842032
-3.9902
0.00777274
-3.98589
0.00705202
-3.98135
0.00626627
-3.97657
0.00543012
-3.97155
0.00455329
-3.96629
0.00365026
-3.9608
0.00273199
-3.95507
0.001812
-3.94911
0.000901206
-3.94291
-3.98618
-0.000621286
-3.98557
-0.00125733
-3.9423
-0.00189766
-3.94849
-0.00253632
-3.95445
-0.00316345
-3.96019
-0.00377291
-3.9657
-0.00435361
-3.97099
-0.0049
-3.97604
-0.00540084
-3.98087
-0.00585185
-3.98546
-0.00624221
-3.98982
-0.00656941
-3.99395
-0.00682386
-3.99785
-0.00700487
-4.00152
-0.0071048
-4.00496
-0.00712502
-4.00817
-0.00706008
-4.01116
-0.00691355
-4.01392
-0.00668254
-4.01646
-0.00637254
-4.01878
-0.00598345
-4.02089
-0.00552253
-4.02277
-0.00499223
-4.02444
-0.00440134
-4.0259
-0.00375471
-4.02714
-0.00306218
-4.02818
-0.00233063
-4.029
-0.0015705
-4.02962
-0.000790248
-4.03003
-3.51298e-07
-4.03024
0.000789631
-4.03024
0.00156978
-4.03003
0.00232998
-4.02962
0.0030614
-4.029
0.00375397
-4.02818
0.00440046
-4.02714
0.00499135
-4.0259
0.00552148
-4.02444
0.00598239
-4.02277
0.00637128
-4.02088
0.00668124
-4.01878
0.00691201
-4.01646
0.00705846
-4.01392
0.00712314
-4.01116
0.0071028
-4.00817
0.00700256
-4.00496
0.00682138
-4.00152
0.00656659
-3.99785
0.00623918
-3.99395
0.00584845
-3.98982
0.00539718
-3.98546
0.00489594
-3.98086
0.00434927
-3.97604
0.00376819
-3.97098
0.00315854
-3.9657
0.00253127
-3.96019
0.00189305
-3.95445
0.00125393
-3.94848
0.000621073
-3.94229
-3.98557
-0.000438408
-3.98513
-0.000882136
-3.94185
-0.00132963
-3.94804
-0.00177671
-3.954
-0.00221554
-3.95975
-0.00264249
-3.96527
-0.00304881
-3.97057
-0.0034317
-3.97565
-0.00378212
-3.98051
-0.0040984
-3.98514
-0.00437158
-3.98954
-0.00460137
-3.99371
-0.00477956
-3.99766
-0.00490715
-4.00138
-0.00497729
-4.00488
-0.00499238
-4.00815
-0.0049471
-4.01119
-0.00484537
-4.01402
-0.00468374
-4.01661
-0.00446732
-4.01899
-0.00419479
-4.02114
-0.00387235
-4.02308
-0.00350065
-4.0248
-0.00308679
-4.0263
-0.00263332
-4.02758
-0.00214787
-4.02865
-0.00163468
-4.0295
-0.00110156
-4.03014
-0.000554118
-4.03057
2.74909e-08
-4.03078
0.000554262
-4.03078
0.00110159
-4.03057
0.00163478
-4.03014
0.00214785
-4.0295
0.00263335
-4.02865
0.00308668
-4.02758
0.00350057
-4.0263
0.0038721
-4.0248
0.00419455
-4.02308
0.0044669
-4.02114
0.00468332
-4.01899
0.00484475
-4.01661
0.00494646
-4.01401
0.00499154
-4.01119
0.00497642
-4.00815
0.00490608
-4.00488
0.00477846
-4.00138
0.00460006
-3.99766
0.00437024
-3.99371
0.00409687
-3.98954
0.00378058
-3.98513
0.00342998
-3.98051
0.0030471
-3.97565
0.00264064
-3.97057
0.00221376
-3.96527
0.00177488
-3.95975
0.00132799
-3.954
0.000880587
-3.94804
0.00043736
-3.94185
-3.98513
-0.000304926
-3.98484
-0.000621838
-3.94156
-0.00093929
-3.94774
-0.00125586
-3.95371
-0.00156584
-3.95945
-0.00186759
-3.96499
-0.00215411
-3.9703
-0.0024247
-3.9754
-0.00267158
-3.98027
-0.00289501
-3.98493
-0.00308738
-3.98936
-0.00324977
-3.99356
-0.003375
-3.99755
-0.00346538
-4.0013
-0.00351439
-4.00484
-0.00352532
-4.00815
-0.00349303
-4.01123
-0.00342152
-4.01409
-0.00330707
-4.01673
-0.00315468
-4.01915
-0.00296197
-4.02134
-0.0027346
-4.02331
-0.00247193
-4.02506
-0.0021799
-4.02659
-0.00185948
-4.0279
-0.0015168
-4.029
-0.0011542
-4.02987
-0.000777732
-4.03052
-0.000390986
-4.03096
4.16938e-07
-4.03117
0.00039191
-4.03117
0.000778538
-4.03096
0.00115507
-4.03052
0.00151752
-4.02987
0.00186024
-4.029
0.00218049
-4.0279
0.00247251
-4.02659
0.00273498
-4.02506
0.00296233
-4.02331
0.0031548
-4.02134
0.00330713
-4.01915
0.00342131
-4.01673
0.00349272
-4.01409
0.00352471
-4.01123
0.00351363
-4.00815
0.00346429
-4.00484
0.00337371
-4.0013
0.00324811
-3.99754
0.00308548
-3.99356
0.00289269
-3.98935
0.00266898
-3.98492
0.00242163
-3.98027
0.00215071
-3.97539
0.0018637
-3.9703
0.00156167
-3.96498
0.0012514
-3.95945
0.000935111
-3.9537
0.000618653
-3.94774
0.00030478
-3.94155
-3.98483
-0.000220413
-3.98462
-0.000445127
-3.94134
-0.000670847
-3.94752
-0.000896536
-3.95348
-0.00111713
-3.95923
-0.00133233
-3.96477
-0.00153602
-3.9701
-0.00172878
-3.9752
-0.00190398
-3.98009
-0.00206312
-3.98476
-0.00219925
-3.98921
-0.00231487
-3.99344
-0.00240323
-3.99745
-0.00246751
-4.00123
-0.00250165
-4.00479
-0.0025095
-4.00813
-0.00248577
-4.01125
-0.00243501
-4.01414
-0.00235302
-4.0168
-0.00224466
-4.01925
-0.00210712
-4.02147
-0.0019455
-4.02346
-0.00175826
-4.02524
-0.00155065
-4.02679
-0.00132244
-4.02812
-0.00107875
-4.02923
-0.000820626
-4.03011
-0.000552871
-4.03078
-0.000277639
-4.03122
7.95835e-07
-4.03144
0.000279323
-4.03144
0.000554432
-4.03122
0.000822249
-4.03078
0.00108022
-4.03011
0.00132394
-4.02923
0.00155197
-4.02812
0.00175958
-4.02679
0.00194661
-4.02524
0.00210821
-4.02346
0.00224552
-4.02147
0.00235383
-4.01925
0.00243556
-4.0168
0.00248626
-4.01414
0.00250972
-4.01124
0.00250179
-4.00813
0.00246738
-4.00479
0.00240301
-4.00123
0.00231437
-3.99745
0.00219865
-3.99344
0.00206223
-3.98921
0.001903
-3.98476
0.00172751
-3.98009
0.00153465
-3.9752
0.00133069
-3.97009
0.00111544
-3.96477
0.000894645
-3.95923
0.000669051
-3.95348
0.000443402
-3.94751
0.000219414
-3.94133
-3.98462
-0.000154541
-3.98448
-0.000319654
-3.94119
-0.000483508
-3.94737
-0.000646817
-3.95334
-0.00080557
-3.95909
-0.000960676
-3.96463
-0.00110677
-3.96996
-0.00124547
-3.97508
-0.00137075
-3.97998
-0.00148511
-3.98466
-0.00158207
-3.98913
-0.00166504
-3.99337
-0.00172757
-3.99739
-0.0017736
-4.0012
-0.00179717
-4.00478
-0.00180269
-4.00813
-0.00178478
-4.01127
-0.00174827
-4.01418
-0.00168868
-4.01687
-0.0016109
-4.01933
-0.00151161
-4.02157
-0.00139569
-4.02359
-0.00126091
-4.02538
-0.00111204
-4.02694
-0.000948026
-4.02829
-0.000773307
-4.02941
-0.000587971
-4.0303
-0.000395985
-4.03097
-0.000198488
-4.03142
1.19273e-06
-4.03165
0.000200967
-4.03165
0.000398331
-4.03142
0.00059037
-4.03097
0.000775534
-4.0303
0.000950266
-4.02941
0.00111407
-4.02829
0.00126291
-4.02694
0.00139745
-4.02538
0.00151331
-4.02359
0.00161231
-4.02157
0.00168999
-4.01933
0.00174925
-4.01687
0.00178562
-4.01418
0.00180317
-4.01127
0.00179746
-4.00813
0.0017735
-4.00478
0.00172724
-4.0012
0.00166427
-3.99739
0.00158103
-3.99337
0.00148358
-3.98912
0.00136888
-3.98466
0.00124306
-3.97998
0.00110397
-3.97508
0.000957296
-3.96996
0.000801811
-3.96463
0.000642638
-3.95909
0.000479468
-3.95333
0.000316438
-3.94737
0.000154296
-3.94119
-3.98447
-0.000115292
-3.98436
-0.000234836
-3.94108
-0.00035375
-3.94725
-0.000472784
-3.95322
-0.00058818
-3.95897
-0.000701193
-3.96452
-0.00080692
-3.96986
-0.000907853
-3.97498
-0.000998095
-3.97989
-0.00108105
-3.98458
-0.00115057
-3.98905
-0.00121059
-3.99331
-0.0012549
-3.99734
-0.00128815
-4.00116
-0.00130417
-4.00475
-0.00130796
-4.00812
-0.00129408
-4.01127
-0.00126745
-4.0142
-0.00122341
-4.0169
-0.00116706
-4.01938
-0.00109444
-4.02163
-0.00101048
-4.02366
-0.000912389
-4.02546
-0.000804653
-4.02704
-0.000685567
-4.0284
-0.000559171
-4.02952
-0.000424814
-4.03043
-0.00028592
-4.0311
-0.000142899
-4.03155
1.59544e-06
-4.03178
0.000146185
-4.03178
0.000289066
-4.03155
0.000428011
-4.0311
0.000562183
-4.03043
0.000688587
-4.02952
0.000807448
-4.0284
0.000915151
-4.02704
0.00101298
-4.02546
0.00109687
-4.02366
0.0011692
-4.02163
0.00122545
-4.01938
0.00126917
-4.0169
0.00129566
-4.0142
0.0013092
-4.01127
0.00130527
-4.00812
0.00128889
-4.00475
0.00125548
-4.00116
0.0012108
-3.99734
0.0011506
-3.99331
0.0010807
-3.98905
0.000997563
-3.98458
0.000906927
-3.97988
0.00080579
-3.97498
0.000699665
-3.96985
0.000586473
-3.96452
0.000470747
-3.95897
0.000351716
-3.95322
0.00023284
-3.94725
0.00011422
-3.94107
-3.98436
-8.14634e-05
-3.98429
-0.000172871
-3.94101
-0.000261951
-3.94718
-0.000350652
-3.95315
-0.000435705
-3.95891
-0.000519335
-3.96445
-0.000596807
-3.96979
-0.000671156
-3.97492
-0.000736853
-3.97983
-0.000797821
-3.98453
-0.000847921
-3.98901
-0.000891869
-3.99327
-0.000923364
-3.99732
-0.000947479
-4.00114
-0.000958172
-4.00475
-0.000960738
-4.00813
-0.000949475
-4.01129
-0.000929793
-4.01423
-0.000896648
-4.01694
-0.000855183
-4.01943
-0.000801287
-4.02169
-0.000739761
-4.02373
-0.000667383
-4.02554
-0.000588534
-4.02713
-0.000500997
-4.02849
-0.00040854
-4.02962
-0.000310003
-4.03053
-0.00020843
-4.03121
-0.000103682
-4.03166
2.01519e-06
-4.03189
0.000107809
-4.03189
0.000212406
-4.03166
0.000314023
-4.03121
0.000412356
-4.03053
0.000504803
-4.02962
0.000592086
-4.02849
0.000670875
-4.02713
0.000742952
-4.02554
0.00080437
-4.02373
0.000857921
-4.02169
0.000899232
-4.01943
0.00093199
-4.01694
0.000951475
-4.01423
0.000962311
-4.01129
0.000959504
-4.00813
0.000948343
-4.00475
0.000923943
-4.00114
0.000891938
-3.99732
0.000847653
-3.99327
0.000796993
-3.98901
0.000735626
-3.98453
0.00066931
-3.97983
0.000594493
-3.97492
0.000516352
-3.96979
0.000432251
-3.96445
0.00034665
-3.9589
0.000257957
-3.95314
0.000169542
-3.94718
8.10483e-05
-3.941
-3.98429
-6.37615e-05
-3.98423
-0.000131864
-3.94094
-0.000198496
-3.94712
-0.000265303
-3.95308
-0.000328896
-3.95884
-0.000391773
-3.96439
-0.00044927
-3.96973
-0.000504915
-3.97486
-0.000553214
-3.97978
-0.000598632
-3.98448
-0.000635001
-3.98897
-0.000667557
-3.99324
-0.000689908
-3.99729
-0.000707595
-4.00112
-0.00071442
-4.00473
-0.00071607
-4.00812
-0.000706623
-4.01129
-0.000691781
-4.01424
-0.000666226
-4.01696
-0.000635285
-4.01945
-0.000594512
-4.02172
-0.000548786
-4.02377
-0.000494508
-4.02559
-0.00043602
-4.02718
-0.000370705
-4.02854
-0.000302188
-4.02968
-0.000228897
-4.03059
-0.000153645
-4.03128
-7.58912e-05
-4.03173
2.44309e-06
-4.03196
8.0876e-05
-4.03196
0.000158471
-4.03173
0.000233762
-4.03127
0.000306836
-4.03059
0.000375334
-4.02968
0.000440378
-4.02854
0.000498794
-4.02718
0.000552752
-4.02559
0.000598359
-4.02377
0.000638768
-4.02172
0.00066955
-4.01945
0.000694707
-4.01695
0.000709355
-4.01423
0.000718377
-4.01129
0.000716508
-4.00812
0.000709238
-4.00473
0.000691314
-4.00112
0.000668501
-3.99729
0.000635691
-3.99324
0.000598844
-3.98897
0.000553149
-3.98448
0.000504347
-3.97978
0.0004484
-3.97486
0.000390381
-3.96973
0.000327213
-3.96439
0.000263158
-3.95884
0.000196259
-3.95308
0.000129612
-3.94712
6.25863e-05
-3.94094
-3.98423
-4.56541e-05
-3.98419
-0.000100997
-3.94091
-0.000153247
-3.94709
-0.000205213
-3.95305
-0.000253943
-3.95881
-0.000302292
-3.96436
-0.00034573
-3.9697
-0.000388325
-3.97484
-0.00042435
-3.97976
-0.00045881
-3.98446
-0.000485544
-3.98895
-0.000510038
-3.99323
-0.000525858
-3.99728
-0.000539051
-4.00112
-0.000543045
-4.00474
-0.000543976
-4.00813
-0.000535794
-4.0113
-0.00052429
-4.01425
-0.000503977
-4.01698
-0.000480477
-4.01948
-0.000448859
-4.02176
-0.000414223
-4.02381
-0.000372667
-4.02563
-0.000328503
-4.02723
-0.000278809
-4.0286
-0.000227156
-4.02974
-0.000171631
-4.03065
-0.000114916
-4.03134
-5.61792e-05
-4.03179
2.88152e-06
-4.03202
6.20425e-05
-4.03202
0.00012061
-4.03179
0.000177357
-4.03134
0.000232646
-4.03065
0.000284264
-4.02974
0.000333659
-4.0286
0.000377725
-4.02723
0.000418924
-4.02563
0.000453405
-4.02381
0.000484612
-4.02176
0.000507904
-4.01948
0.000527757
-4.01698
0.000539005
-4.01425
0.000546683
-4.0113
0.000545449
-4.00813
0.000540909
-4.00473
0.000527367
-4.00112
0.000510957
-3.99728
0.000486064
-3.99322
0.000458688
-3.98895
0.000423765
-3.98446
0.000387036
-3.97975
0.000343904
-3.97483
0.000299701
-3.9697
0.000250793
-3.96436
0.000201393
-3.95881
0.00014931
-3.95305
9.75651e-05
-3.94708
4.50683e-05
-3.9409
-3.98419
-3.85435e-05
-3.98416
-8.17153e-05
-3.94087
-0.000122765
-3.94705
-0.000163986
-3.95301
-0.0002021
-3.95877
-0.000240302
-3.96433
-0.000273889
-3.96967
-0.000307196
-3.9748
-0.000334579
-3.97973
-0.000361359
-3.98443
-0.000381123
-3.98893
-0.000399965
-3.99321
-0.000411154
-3.99727
-0.000421038
-4.00111
-0.000423003
-4.00473
-0.000423442
-4.00813
-0.000415952
-4.0113
-0.000406811
-4.01426
-0.000390158
-4.01699
-0.000371749
-4.01949
-0.000346554
-4.02177
-0.00031972
-4.02383
-0.000287017
-4.02565
-0.00025291
-4.02725
-0.000214163
-4.02863
-0.00017434
-4.02977
-0.000131281
-4.03069
-8.75922e-05
-4.03137
-4.21941e-05
-4.03183
3.32434e-06
-4.03206
4.89455e-05
-4.03206
9.41653e-05
-4.03183
0.000137882
-4.03137
0.00018069
-4.03069
0.000220468
-4.02977
0.000258895
-4.02863
0.000292892
-4.02725
0.000325215
-4.02565
0.000351879
-4.02383
0.00037664
-4.02177
0.000394831
-4.01949
0.000411006
-4.01699
0.000419887
-4.01426
0.000426865
-4.0113
0.000426136
-4.00813
0.000423634
-4.00473
0.000413436
-4.00111
0.00040169
-3.99726
0.000382514
-3.9932
0.000362171
-3.98893
0.000335029
-3.98443
0.000307036
-3.97972
0.000273333
-3.9748
0.000239107
-3.96967
0.000200507
-3.96432
0.000161806
-3.95877
0.000120395
-3.95301
7.92616e-05
-3.94705
3.72807e-05
-3.94087
-3.98416
-2.87233e-05
-3.98414
-6.67894e-05
-3.94086
-0.000101365
-3.94703
-0.000135695
-3.953
-0.000166689
-3.95876
-0.000197976
-3.96431
-0.000224778
-3.96966
-0.000251769
-3.97479
-0.000273155
-3.97972
-0.000294622
-3.98443
-0.000309568
-3.98892
-0.000324456
-3.9932
-0.000332344
-3.99727
-0.000339938
-4.00111
-0.000340383
-4.00473
-0.000340404
-4.00814
-0.000333343
-4.01132
-0.00032576
-4.01427
-0.000311533
-4.01701
-0.000296645
-4.01952
-0.000275801
-4.0218
-0.000254318
-4.02386
-0.000227707
-4.02568
-0.000200536
-4.02729
-0.000169328
-4.02866
-0.000137686
-4.02981
-0.000103232
-4.03072
-6.85508e-05
-4.03141
-3.23795e-05
-4.03187
3.77104e-06
-4.0321
4.00263e-05
-4.0321
7.60089e-05
-4.03187
0.000110711
-4.03141
0.000144895
-4.03072
0.000176478
-4.02981
0.000207339
-4.02866
0.000234376
-4.02729
0.000260571
-4.02568
0.000281852
-4.02385
0.000302216
-4.0218
0.000316842
-4.01952
0.000330533
-4.01701
0.0003378
-4.01427
0.000344276
-4.01132
0.000343889
-4.00813
0.000342815
-4.00473
0.000334808
-4.00111
0.000326246
-3.99726
0.000310893
-3.9932
0.000295223
-3.98892
0.000273227
-3.98442
0.000251053
-3.97971
0.000223454
-3.97479
0.000195796
-3.96965
0.000163867
-3.96431
0.000132086
-3.95875
9.75211e-05
-3.95299
6.32925e-05
-3.94703
2.79962e-05
-3.94085
-3.98414
-2.70581e-05
-3.98412
-5.91111e-05
-3.94083
-8.84108e-05
-3.94701
-0.000117829
-3.95297
-0.000144087
-3.95873
-0.000170726
-3.96429
-0.000192906
-3.96964
-0.000215695
-3.97477
-0.000232928
-3.9797
-0.000250736
-3.98441
-0.000262379
-3.98891
-0.000274508
-3.99319
-0.00028001
-3.99725
-0.000286049
-4.0011
-0.000285309
-4.00473
-0.000284946
-4.00813
-0.000278114
-4.01132
-0.000271485
-4.01428
-0.000258755
-4.01701
-0.000246249
-4.01952
-0.00022822
-4.02181
-0.000210273
-4.02387
-0.000187735
-4.0257
-0.00016521
-4.0273
-0.000139034
-4.02868
-0.000112897
-4.02983
-8.42115e-05
-4.03074
-5.55909e-05
-4.03143
-2.5629e-05
-4.03189
4.2182e-06
-4.03212
3.41728e-05
-4.03212
6.39364e-05
-4.03189
9.25742e-05
-4.03143
0.000120973
-4.03074
0.000147041
-4.02983
0.000172849
-4.02868
0.000195226
-4.0273
0.000217322
-4.0257
0.000235051
-4.02387
0.000252575
-4.02181
0.000264804
-4.01952
0.000276977
-4.01701
0.00028328
-4.01428