/*--------------------------------*- C++ -*----------------------------------*\
  =========                 |
  \\      /  F ield         | OpenFOAM: The Open Source CFD Toolbox
   \\    /   O peration     | Website:  https://openfoam.org
    \\  /    A nd           | Version:  7
     \\/     M anipulation  |
\*---------------------------------------------------------------------------*/
FoamFile
{
    version     2.0;
    format      ascii;
    class       surfaceScalarField;
    location    "0";
    object      phiSolid;
}
// * * * * * * * * * * * * * * * * * * * * * * * * * * * * * * * * * * * * * //

dimensions      [0 3 -1 0 0 0 0];

internalField   nonuniform List<scalar> 
24692
(
-0.16411
-1.09162
-0.276084
-1.07958
-0.344384
-1.07571
-0.383794
-1.0686
-0.404006
-1.05995
-0.411398
-1.05075
-0.410186
-1.04159
-0.403167
-1.03279
-0.392206
-1.0245
-0.378557
-1.0168
-0.363063
-1.00971
-0.346298
-1.00322
-0.328653
-0.997294
-0.310399
-0.9919
-0.291722
-0.987
-0.272751
-0.982559
-0.253578
-0.978544
-0.234267
-0.974924
-0.214862
-0.971671
-0.195396
-0.968762
-0.175891
-0.966176
-0.156362
-0.963894
-0.13682
-0.961901
-0.117272
-0.960185
-0.0977222
-0.958732
-0.0781736
-0.957535
-0.0586271
-0.956586
-0.039083
-0.95588
-0.0195409
-0.955411
9.40803e-08
-0.955177
0.0195411
-0.955177
0.0390832
-0.955411
0.0586272
-0.95588
0.0781737
-0.956586
0.0977223
-0.957535
0.117272
-0.958732
0.13682
-0.960184
0.156362
-0.961901
0.175891
-0.963894
0.195396
-0.966176
0.214862
-0.968762
0.234267
-0.971671
0.253578
-0.974924
0.272751
-0.978544
0.291721
-0.982559
0.310399
-0.987
0.328653
-0.991899
0.346297
-0.997294
0.363063
-1.00322
0.378557
-1.00971
0.392207
-1.0168
0.403167
-1.0245
0.410187
-1.03278
0.4114
-1.04159
0.404007
-1.05075
0.383795
-1.05995
0.344386
-1.0686
0.276085
-1.07571
0.164109
-1.07958
-1.09162
-0.0460991
-1.04552
-0.0906391
-1.03504
-0.130283
-1.03606
-0.163304
-1.03558
-0.189398
-1.03386
-0.208965
-1.03119
-0.222716
-1.02784
-0.231449
-1.02405
-0.23594
-1.02001
-0.23689
-1.01585
-0.234907
-1.01169
-0.230507
-1.00762
-0.224118
-1.00368
-0.216097
-0.999919
-0.206732
-0.996363
-0.196263
-0.993027
-0.184883
-0.989922
-0.172751
-0.987054
-0.159998
-0.984422
-0.146732
-0.982026
-0.133042
-0.979864
-0.119001
-0.977933
-0.104673
-0.976228
-0.0901095
-0.974746
-0.0753569
-0.973483
-0.0604546
-0.972436
-0.0454372
-0.971602
-0.0303365
-0.970978
-0.0151815
-0.970564
2.44378e-07
-0.970357
0.015182
-0.970357
0.030337
-0.970564
0.0454377
-0.970978
0.060455
-0.971602
0.0753574
-0.972436
0.09011
-0.973483
0.104673
-0.974745
0.119001
-0.976228
0.133042
-0.977932
0.146733
-0.979864
0.159999
-0.982026
0.172752
-0.984422
0.184883
-0.987053
0.196264
-0.989922
0.206733
-0.993027
0.216098
-0.996362
0.224119
-0.999919
0.230508
-1.00368
0.234908
-1.00762
0.236891
-1.01169
0.235941
-1.01585
0.231451
-1.02001
0.222717
-1.02405
0.208966
-1.02784
0.189399
-1.03118
0.163305
-1.03385
0.130283
-1.03558
0.0906392
-1.03606
0.0460984
-1.03503
-1.04552
-0.0206092
-1.02491
-0.0412876
-1.01435
-0.0613895
-1.01595
-0.0800959
-1.01687
-0.0968214
-1.01712
-0.111212
-1.01679
-0.123106
-1.01594
-0.132487
-1.01466
-0.139436
-1.01305
-0.144099
-1.01118
-0.146656
-1.00913
-0.147302
-1.00697
-0.146234
-1.00474
-0.143644
-1.0025
-0.13971
-1.00029
-0.134596
-0.998135
-0.128451
-0.996061
-0.12141
-0.994089
-0.113591
-0.992234
-0.105101
-0.99051
-0.096035
-0.988924
-0.0864769
-0.987485
-0.0765018
-0.986197
-0.0661775
-0.985064
-0.0555649
-0.984089
-0.04472
-0.983275
-0.033694
-0.982622
-0.0225351
-0.982131
-0.0112889
-0.981804
4.99861e-07
-0.98164
0.0112899
-0.98164
0.0225361
-0.981804
0.033695
-0.982131
0.044721
-0.982622
0.055566
-0.983275
0.0661785
-0.984089
0.0765028
-0.985064
0.0864779
-0.986197
0.0960361
-0.987485
0.105102
-0.988924
0.113592
-0.99051
0.121411
-0.992235
0.128452
-0.994089
0.134597
-0.996061
0.139711
-0.998135
0.143645
-1.00029
0.146235
-1.0025
0.147303
-1.00474
0.146657
-1.00697
0.144101
-1.00913
0.139438
-1.01118
0.132489
-1.01305
0.123108
-1.01466
0.111213
-1.01594
0.0968226
-1.01679
0.0800969
-1.01712
0.0613903
-1.01687
0.0412879
-1.01595
0.0206088
-1.01435
-1.02491
-0.0110383
-1.01387
-0.0221704
-1.00322
-0.033245
-1.00488
-0.04395
-1.00616
-0.0540033
-1.00707
-0.0631721
-1.00762
-0.0712802
-1.00783
-0.0782082
-1.00774
-0.0838879
-1.00737
-0.0882947
-1.00677
-0.0914388
-1.00599
-0.0933575
-1.00505
-0.0941065
-1.00399
-0.0937554
-1.00285
-0.0923808
-1.00166
-0.0900643
-1.00045
-0.0868876
-0.999236
-0.0829324
-0.998043
-0.0782775
-0.996888
-0.0729988
-0.995787
-0.0671682
-0.994753
-0.060854
-0.993797
-0.0541206
-0.992928
-0.047029
-0.992154
-0.0396365
-0.99148
-0.0319979
-0.990912
-0.0241653
-0.990453
-0.0161891
-0.990106
-0.00811793
-0.989874
4.52082e-07
-0.989757
0.00811886
-0.989757
0.01619
-0.989874
0.0241662
-0.990106
0.0319988
-0.990453
0.0396374
-0.990912
0.0470299
-0.99148
0.0541216
-0.992154
0.060855
-0.992928
0.0671691
-0.993797
0.0729997
-0.994753
0.0782785
-0.995787
0.0829334
-0.996888
0.0868886
-0.998043
0.0900653
-0.999236
0.0923819
-1.00045
0.0937565
-1.00166
0.0941077
-1.00285
0.0933586
-1.00399
0.09144
-1.00505
0.0882959
-1.00599
0.0838891
-1.00677
0.0782096
-1.00737
0.0712816
-1.00774
0.0631736
-1.00783
0.0540048
-1.00762
0.0439516
-1.00707
0.0332467
-1.00616
0.0221721
-1.00488
0.01104
-1.00322
-1.01387
-0.0064469
-1.00742
-0.0129516
-0.996709
-0.019475
-0.998349
-0.0258772
-0.999754
-0.0320213
-1.00092
-0.0377815
-1.00185
-0.0430477
-1.00256
-0.0477298
-1.00305
-0.0517577
-1.00334
-0.055083
-1.00344
-0.0576755
-1.00339
-0.0595232
-1.00319
-0.060628
-1.00288
-0.0610053
-1.00247
-0.0606791
-1.00198
-0.0596823
-1.00144
-0.0580525
-1.00086
-0.0558322
-1.00026
-0.0530662
-0.999648
-0.0498012
-0.999046
-0.0460844
-0.998464
-0.0419636
-0.997912
-0.0374859
-0.9974
-0.0326984
-0.996935
-0.027647
-0.996525
-0.0223773
-0.996175
-0.0169339
-0.99589
-0.0113609
-0.995673
-0.00570165
-0.995527
5.04133e-07
-0.995453
0.00570268
-0.995453
0.0113619
-0.995527
0.0169349
-0.995673
0.0223783
-0.99589
0.027648
-0.996176
0.0326994
-0.996526
0.0374869
-0.996936
0.0419646
-0.9974
0.0460854
-0.997912
0.0498022
-0.998464
0.0530672
-0.999046
0.0558333
-0.999648
0.0580535
-1.00026
0.0596834
-1.00086
0.0606803
-1.00144
0.0610065
-1.00198
0.0606293
-1.00247
0.0595245
-1.00288
0.0576769
-1.00319
0.0550845
-1.00339
0.0517593
-1.00344
0.0477315
-1.00334
0.0430495
-1.00305
0.0377834
-1.00256
0.0320233
-1.00185
0.0258793
-1.00092
0.0194771
-0.999754
0.0129534
-0.998349
0.0064481
-0.996709
-1.00742
-0.00395165
-1.00347
-0.00794286
-0.992722
-0.0119592
-0.994336
-0.0159291
-0.995787
-0.0197798
-0.997074
-0.0234418
-0.998195
-0.0268497
-0.999154
-0.0299459
-0.999955
-0.0326805
-1.0006
-0.0350137
-1.00111
-0.0369146
-1.00149
-0.0383624
-1.00175
-0.0393444
-1.0019
-0.0398574
-1.00196
-0.0399043
-1.00194
-0.0394955
-1.00185
-0.038646
-1.00171
-0.0373762
-1.00153
-0.0357095
-1.00132
-0.0336733
-1.00108
-0.0312961
-1.00084
-0.0286096
-1.0006
-0.0256455
-1.00036
-0.0224377
-1.00014
-0.0190199
-0.999944
-0.0154268
-0.999769
-0.0116931
-0.999624
-0.00785391
-0.999513
-0.0039443
-0.999437
4.7462e-07
-0.999399
0.00394527
-0.999399
0.00785485
-0.999437
0.011694
-0.999513
0.0154277
-0.999624
0.0190208
-0.999769
0.0224386
-0.999944
0.0256464
-1.00014
0.0286104
-1.00036
0.0312969
-1.0006
0.033674
-1.00084
0.0357102
-1.00108
0.0373768
-1.00132
0.0386466
-1.00153
0.039496
-1.00171
0.0399048
-1.00185
0.0398579
-1.00194
0.0393449
-1.00196
0.0383628
-1.0019
0.036915
-1.00175
0.0350142
-1.00149
0.0326809
-1.00111
0.0299464
-1.0006
0.0268502
-0.999954
0.0234423
-0.999153
0.0197805
-0.998194
0.0159298
-0.997073
0.0119602
-0.995786
0.0079442
-0.994335
0.0039536
-0.99272
-1.00347
-0.00250322
-1.00096
-0.00502926
-0.990192
-0.00757625
-0.991786
-0.0101036
-0.993257
-0.0125696
-0.994605
-0.0149336
-0.995828
-0.0171559
-0.996928
-0.0192006
-0.997907
-0.0210344
-0.998767
-0.0226294
-0.999514
-0.0239615
-1.00015
-0.0250128
-1.00069
-0.0257695
-1.00114
-0.0262239
-1.0015
-0.0263721
-1.00179
-0.0262156
-1.002
-0.0257592
-1.00216
-0.0250125
-1.00227
-0.023987
-1.00234
-0.0226985
-1.00237
-0.0211641
-1.00237
-0.0194039
-1.00236
-0.0174389
-1.00233
-0.0152924
-1.00229
-0.0129882
-1.00224
-0.0105514
-1.0022
-0.00800759
-1.00216
-0.00538324
-1.00213
-0.00270486
-1.00211
5.17433e-07
-1.0021
0.00270592
-1.0021
0.00538427
-1.00211
0.00800862
-1.00213
0.0105524
-1.00216
0.0129892
-1.0022
0.0152934
-1.00224
0.0174399
-1.00229
0.0194048
-1.00233
0.021165
-1.00236
0.0226993
-1.00237
0.0239878
-1.00237
0.0250132
-1.00234
0.0257599
-1.00227
0.0262163
-1.00216
0.0263727
-1.002
0.0262245
-1.00179
0.0257701
-1.0015
0.0250134
-1.00114
0.0239621
-1.00069
0.02263
-1.00015
0.0210351
-0.999514
0.0192013
-0.998767
0.0171567
-0.997907
0.0149344
-0.996928
0.0125705
-0.995828
0.0101046
-0.994604
0.00757733
-0.993257
0.00503027
-0.991786
0.00250401
-0.990192
-1.00096
-0.00161889
-0.999349
-0.00325536
-0.988562
-0.00490647
-0.99014
-0.00654824
-0.99162
-0.00815547
-0.993002
-0.00970351
-0.994285
-0.0111676
-0.995468
-0.012525
-0.996553
-0.0137538
-0.997542
-0.0148353
-0.998436
-0.0157522
-0.99924
-0.0164912
-0.999957
-0.0170409
-1.00059
-0.0173939
-1.00115
-0.017545
-1.00164
-0.0174931
-1.00206
-0.0172385
-1.00242
-0.0167857
-1.00273
-0.0161403
-1.00298
-0.0153116
-1.0032
-0.0143097
-1.00338
-0.0131474
-1.00352
-0.0118385
-1.00364
-0.0103988
-1.00373
-0.00884449
-1.0038
-0.00719364
-1.00385
-0.00546434
-1.00389
-0.00367588
-1.00392
-0.00184759
-1.00394
6.07761e-07
-1.00395
0.00184882
-1.00395
0.00367708
-1.00394
0.00546554
-1.00392
0.00719478
-1.00389
0.00884562
-1.00385
0.0103998
-1.0038
0.0118395
-1.00373
0.0131484
-1.00364
0.0143106
-1.00352
0.0153124
-1.00338
0.016141
-1.0032
0.0167862
-1.00298
0.017239
-1.00273
0.0174934
-1.00242
0.0175453
-1.00206
0.0173941
-1.00164
0.0170409
-1.00115
0.0164911
-1.00059
0.015752
-0.999957
0.014835
-0.999239
0.0137534
-0.998436
0.0125245
-0.997541
0.011167
-0.996552
0.0097028
-0.995467
0.00815472
-0.994283
0.0065475
-0.993
0.0049059
-0.991618
0.00325518
-0.990138
0.00161954
-0.988559
-0.999347
-0.00106715
-0.99828
-0.00214394
-0.987483
-0.00323129
-0.989051
-0.00431418
-0.990536
-0.00537655
-0.991938
-0.00640292
-0.993257
-0.00737724
-0.994492
-0.00828504
-0.995644
-0.00911158
-0.996713
-0.00984456
-0.997701
-0.0104718
-0.99861
-0.0109841
-0.999442
-0.0113726
-1.0002
-0.0116319
-1.00089
-0.011757
-1.00151
-0.0117461
-1.00207
-0.0115983
-1.00256
-0.0113157
-1.00301
-0.0109009
-1.00339
-0.0103595
-1.00374
-0.00969752
-1.00403
-0.00892342
-1.00429
-0.00804594
-1.00451
-0.00707599
-1.00469
-0.00602454
-1.00485
-0.00490424
-1.00497
-0.00372772
-1.00507
-0.00250879
-1.00514
-0.00126118
-1.00519
7.28496e-07
-1.00521
0.00126266
-1.00521
0.00251023
-1.00519
0.00372917
-1.00514
0.00490563
-1.00507
0.00602593
-1.00497
0.00707731
-1.00485
0.00804723
-1.00469
0.00892462
-1.00451
0.00969868
-1.00429
0.0103606
-1.00403
0.0109019
-1.00374
0.0113166
-1.00339
0.0115991
-1.00301
0.0117468
-1.00256
0.0117576
-1.00207
0.0116325
-1.00151
0.0113731
-1.00089
0.0109845
-1.0002
0.0104721
-0.999442
0.00984477
-0.99861
0.00911174
-0.997701
0.00828514
-0.996712
0.00737732
-0.995643
0.00640296
-0.994491
0.00537658
-0.993256
0.00431419
-0.991937
0.00323131
-0.990535
0.00214391
-0.98905
0.00106706
-0.987483
-0.99828
-0.000710852
-0.997573
-0.0014305
-0.986769
-0.00215695
-0.98833
-0.00288081
-0.989817
-0.00359162
-0.991232
-0.00427969
-0.992573
-0.00493431
-0.993841
-0.00554617
-0.995036
-0.00610531
-0.996157
-0.00660366
-0.997206
-0.00703258
-0.998184
-0.00738598
-0.999092
-0.00765722
-0.999932
-0.00784253
-1.00071
-0.00793768
-1.00142
-0.00794143
-1.00206
-0.00785215
-1.00265
-0.00767117
-1.00319
-0.00739945
-1.00367
-0.00704069
-1.0041
-0.0065983
-1.00448
-0.0060781
-1.00481
-0.00548564
-1.0051
-0.00482848
-1.00535
-0.00411395
-1.00556
-0.00335095
-1.00574
-0.00254818
-1.00587
-0.00171544
-1.00597
-0.000862337
-1.00604
8.84939e-07
-1.00607
0.00086413
-1.00607
0.00171719
-1.00604
0.00254994
-1.00597
0.00335264
-1.00587
0.00411562
-1.00574
0.00483007
-1.00556
0.00548719
-1.00535
0.00607956
-1.0051
0.0065997
-1.00481
0.00704196
-1.00448
0.00740064
-1.0041
0.00767222
-1.00367
0.0078531
-1.00319
0.00794221
-1.00265
0.00793833
-1.00206
0.007843
-1.00142
0.00765755
-1.00071
0.00738611
-0.999932
0.00703254
-0.999092
0.00660342
-0.998183
0.00610489
-0.997205
0.00554555
-0.996156
0.00493352
-0.995035
0.00427871
-0.99384
0.00359051
-0.992572
0.00287961
-0.99123
0.00215584
-0.989815
0.0014297
-0.988328
0.000710862
-0.986767
-0.997571
-0.000480811
-0.997091
-0.000965995
-0.986283
-0.00145611
-0.987839
-0.00194495
-0.989327
-0.00242544
-0.99075
-0.00289119
-0.992106
-0.00333489
-0.993396
-0.0037506
-0.994618
-0.00413125
-0.995774
-0.00447173
-0.996864
-0.00476582
-0.997888
-0.00500959
-0.998846
-0.00519805
-0.999741
-0.0053288
-1.00057
-0.00539841
-1.00134
-0.00540613
-1.00205
-0.00535028
-1.00271
-0.00523185
-1.0033
-0.00505095
-1.00385
-0.00481021
-1.00433
-0.00451151
-1.00477
-0.00415896
-1.00516
-0.00375602
-1.0055
-0.00330805
-1.0058
-0.00281989
-1.00605
-0.00229785
-1.00625
-0.00174784
-1.00642
-0.00117681
-1.00654
-0.000591438
-1.00662
1.03588e-06
-1.00666
0.000593534
-1.00666
0.00117887
-1.00662
0.0017499
-1.00654
0.00229985
-1.00642
0.00282188
-1.00625
0.00330998
-1.00605
0.00375791
-1.0058
0.00416076
-1.0055
0.00451327
-1.00516
0.00481187
-1.00477
0.00505254
-1.00433
0.00523332
-1.00385
0.00535168
-1.0033
0.0054074
-1.00271
0.00539958
-1.00205
0.00532984
-1.00134
0.00519899
-1.00057
0.00501038
-0.99974
0.00476651
-0.998846
0.00447228
-0.997887
0.0041317
-0.996863
0.00375091
-0.995774
0.00333511
-0.994618
0.00289129
-0.993395
0.00242547
-0.992105
0.00194489
-0.990749
0.00145599
-0.989326
0.000965788
-0.987838
0.000480539
-0.986282
-0.997091
-0.000326571
-0.996768
-0.000658307
-0.985957
-0.000992923
-0.987509
-0.00132661
-0.988998
-0.00165455
-0.990426
-0.00197271
-0.991792
-0.00227597
-0.993096
-0.00256059
-0.994338
-0.00282146
-0.995517
-0.00305542
-0.996633
-0.00325788
-0.997688
-0.00342643
-0.99868
-0.00355726
-0.999612
-0.003649
-1.00048
-0.00369883
-1.0013
-0.00370651
-1.00205
-0.00367042
-1.00274
-0.00359145
-1.00338
-0.00346926
-1.00397
-0.00330587
-1.0045
-0.00310218
-1.00498
-0.00286124
-1.0054
-0.00258513
-1.00578
-0.00227775
-1.00611
-0.00194221
-1.00638
-0.00158307
-1.00661
-0.00120429
-1.0068
-0.000810843
-1.00694
-0.000407298
-1.00703
1.19936e-06
-1.00707
0.000409722
-1.00707
0.000813223
-1.00703
0.00120668
-1.00694
0.0015854
-1.0068
0.00194452
-1.00661
0.00227998
-1.00638
0.00258733
-1.00611
0.00286334
-1.00578
0.00310423
-1.0054
0.00330779
-1.00498
0.0034711
-1.0045
0.00359315
-1.00397
0.00367201
-1.00338
0.00370794
-1.00274
0.00370013
-1.00205
0.00365012
-1.00129
0.00355822
-1.00048
0.00342719
-0.999611
0.00325846
-0.99868
0.00305577
-0.997687
0.00282161
-0.996632
0.0025605
-0.995516
0.00227568
-0.994336
0.00197218
-0.993095
0.00165383
-0.991791
0.00132572
-0.990424
0.000992026
-0.988996
0.000657598
-0.987507
0.000326531
-0.985955
-0.996766
-0.000225546
-0.996542
-0.000453278
-0.985729
-0.000683273
-0.987278
-0.000912881
-0.988767
-0.00113852
-0.990199
-0.00135771
-0.991572
-0.00156663
-0.992885
-0.00176295
-0.99414
-0.00194296
-0.995335
-0.00210476
-0.99647
-0.00224479
-0.997545
-0.00236183
-0.998561
-0.0024528
-0.999518
-0.00251711
-1.00042
-0.00255239
-1.00126
-0.00255882
-1.00204
-0.00253483
-1.00277
-0.00248137
-1.00344
-0.0023978
-1.00405
-0.0022858
-1.00461
-0.00214564
-1.00511
-0.0019797
-1.00557
-0.0017891
-1.00597
-0.0015768
-1.00632
-0.00134473
-1.00661
-0.00109623
-1.00686
-0.000833919
-1.00706
-0.000561392
-1.0072
-0.000281744
-1.0073
1.34655e-06
-1.00735
0.000284464
-1.00735
0.000564068
-1.0073
0.000836604
-1.0072
0.00109886
-1.00706
0.00134734
-1.00686
0.00157934
-1.00661
0.00179161
-1.00632
0.00198211
-1.00597
0.00214801
-1.00557
0.00228806
-1.00511
0.0024
-1.00461
0.00248344
-1.00405
0.00253681
-1.00343
0.00256066
-1.00277
0.00255414
-1.00204
0.0025187
-1.00126
0.00245428
-1.00042
0.00236315
-0.999518
0.00224598
-0.998561
0.00210577
-0.997545
0.00194384
-0.996469
0.00176365
-0.995334
0.0015672
-0.994139
0.00135811
-0.992885
0.00113879
-0.991571
0.000912988
-0.990198
0.000683275
-0.988767
0.000453138
-0.987277
0.000225334
-0.985728
-0.996541
-0.000155387
-0.996389
-0.000314324
-0.985575
-0.000474299
-0.987122
-0.000633876
-0.988612
-0.000790554
-0.990046
-0.000942808
-0.991423
-0.00108781
-0.992744
-0.00122431
-0.994007
-0.00134932
-0.995212
-0.00146192
-0.99636
-0.00155933
-0.99745
-0.00164098
-0.998482
-0.00170438
-0.999457
-0.00174952
-1.00037
-0.00177431
-1.00123
-0.00177927
-1.00204
-0.00176289
-1.00278
-0.00172619
-1.00347
-0.00166833
-1.00411
-0.00159082
-1.00469
-0.00149349
-1.00521
-0.00137829
-1.00568
-0.00124572
-1.0061
-0.00109808
-1.00646
-0.000936471
-1.00678
-0.000763453
-1.00703
-0.000580661
-1.00724
-0.000390765
-1.0074
-0.00019583
-1.0075
1.49445e-06
-1.00755
0.000198846
-1.00755
0.000393734
-1.0075
0.000583638
-1.0074
0.000766365
-1.00724
0.00093937
-1.00703
0.00110089
-1.00678
0.0012485
-1.00646
0.00138097
-1.0061
0.00149611
-1.00568
0.00159331
-1.00521
0.00167074
-1.00469
0.00172846
-1.00411
0.00176505
-1.00347
0.00178126
-1.00278
0.00177617
-1.00204
0.00175119
-1.00123
0.0017059
-1.00037
0.00164227
-0.999456
0.00156044
-0.998482
0.00146279
-0.997449
0.00134997
-0.996359
0.0012247
-0.995211
0.00108798
-0.994006
0.000942696
-0.992743
0.000790218
-0.991422
0.000633315
-0.990045
0.000473657
-0.988611
0.000313774
-0.987121
0.000155407
-0.985573
-0.996387
-0.000109496
-0.996279
-0.000220391
-0.985464
-0.000332163
-0.98701
-0.000443835
-0.9885
-0.000553422
-0.989936
-0.000660037
-0.991316
-0.000761432
-0.992641
-0.000857039
-0.99391
-0.000944434
-0.995123
-0.00102335
-0.99628
-0.00109145
-0.99738
-0.00114875
-0.998423
-0.00119308
-0.99941
-0.00122486
-1.00034
-0.0012422
-1.00121
-0.00124588
-1.00203
-0.00123442
-1.00279
-0.00120893
-1.0035
-0.00116842
-1.00415
-0.00111432
-1.00474
-0.00104614
-1.00528
-0.000965574
-1.00576
-0.000872665
-1.00619
-0.000769293
-1.00657
-0.000655992
-1.00689
-0.000534762
-1.00715
-0.000406575
-1.00737
-0.000273452
-1.00753
-0.000136738
-1.00763
1.63033e-06
-1.00769
0.000140026
-1.00769
0.000276693
-1.00763
0.000409825
-1.00753
0.000537945
-1.00737
0.000659163
-1.00715
0.000772378
-1.00689
0.000875718
-1.00656
0.000968522
-1.00619
0.00104903
-1.00576
0.00111709
-1.00528
0.00117112
-1.00474
0.00121149
-1.00415
0.00123688
-1.0035
0.00124819
-1.00279
0.0012444
-1.00203
0.00122688
-1.00121
0.00119498
-1.00034
0.00115045
-0.999409
0.00109301
-0.998423
0.00102471
-0.997379
0.000945633
-0.996279
0.000858022
-0.995123
0.000762244
-0.99391
0.000660626
-0.992641
0.00055384
-0.991316
0.000444041
-0.989935
0.000332223
-0.9885
0.00022028
-0.98701
0.000109338
-0.985463
-0.996279
-7.62997e-05
-0.996205
-0.000155374
-0.98539
-0.000234627
-0.986935
-0.000313682
-0.988425
-0.000390991
-0.989862
-0.000466319
-0.991245
-0.000537777
-0.992573
-0.000605243
-0.993846
-0.000666762
-0.995064
-0.000722483
-0.996227
-0.00077031
-0.997334
-0.000810775
-0.998385
-0.000841865
-0.99938
-0.00086432
-1.00032
-0.000876379
-1.0012
-0.000879024
-1.00203
-0.00087078
-1.0028
-0.000852859
-1.00352
-0.00082415
-1.00418
-0.000786038
-1.00478
-0.000737825
-1.00533
-0.000681037
-1.00582
-0.000615383
-1.00626
-0.000542481
-1.00664
-0.00046245
-1.00697
-0.000376916
-1.00724
-0.000286389
-1.00746
-0.000192441
-1.00762
-9.59051e-05
-1.00773
1.76609e-06
-1.00778
9.94659e-05
-1.00778
0.000195951
-1.00773
0.000289905
-1.00762
0.00038036
-1.00746
0.000465878
-1.00724
0.000545815
-1.00697
0.000618678
-1.00664
0.000684216
-1.00626
0.000740941
-1.00582
0.000789014
-1.00533
0.000827039
-1.00478
0.000855587
-1.00417
0.000873395
-1.00352
0.000881453
-1.0028
0.00087867
-1.00203
0.0008664
-1.0012
0.000843781
-1.00032
0.000812455
-0.99938
0.000771795
-0.998385
0.000723706
-0.997333
0.00066776
-0.996226
0.000605952
-0.995064
0.000538232
-0.993845
0.000466466
-0.992572
0.000390881
-0.991243
0.0003133
-0.989861
0.000234115
-0.988424
0.00015489
-0.986934
7.6341e-05
-0.985388
-0.996204
-5.50071e-05
-0.99615
-0.000111116
-0.985334
-0.000167411
-0.986879
-0.000223714
-0.988369
-0.000278714
-0.989807
-0.000332366
-0.991191
-0.000383076
-0.992521
-0.000431127
-0.993798
-0.000474685
-0.995019
-0.000514301
-0.996186
-0.00054811
-0.997298
-0.000576853
-0.998355
-0.000598708
-0.999356
-0.000614656
-1.0003
-0.000622982
-1.00119
-0.00062485
-1.00203
-0.000618767
-1.0028
-0.000606029
-1.00353
-0.000585428
-1.00419
-0.000558358
-1.0048
-0.000523932
-1.00536
-0.000483594
-1.00586
-0.000436814
-1.0063
-0.000385028
-1.00669
-0.000328061
-1.00702
-0.000267299
-1.0073
-0.000202903
-1.00752
-0.000136149
-1.00768
-6.75131e-05
-1.0078
1.89827e-06
-1.00785
7.13393e-05
-1.00785
0.000139922
-1.0078
0.000206683
-1.00768
0.000271003
-1.00752
0.000331748
-1.0073
0.000388617
-1.00702
0.000440364
-1.00669
0.000487023
-1.0063
0.000527299
-1.00586
0.000561583
-1.00536
0.000588569
-1.0048
0.000609008
-1.00419
0.00062164
-1.00353
0.000627542
-1.0028
0.000625548
-1.00203
0.000617023
-1.00119
0.000600929
-1.0003
0.000578859
-0.999356
0.000549951
-0.998355
0.000515908
-0.997298
0.000476108
-0.996186
0.000432299
-0.995019
0.000384044
-0.993797
0.000333069
-0.992521
0.000279208
-0.99119
0.000223951
-0.989806
0.00016747
-0.988369
0.000110984
-0.986878
5.48648e-05
-0.985334
-0.99615
-3.86609e-05
-0.996114
-7.9816e-05
-0.985298
-0.000120621
-0.986843
-0.000161313
-0.988333
-0.000200837
-0.989771
-0.000239458
-0.991156
-0.000275751
-0.992488
-0.000310276
-0.993766
-0.000341339
-0.994991
-0.000369748
-0.996161
-0.000393748
-0.997276
-0.00041432
-0.998337
-0.000429699
-0.999343
-0.000441082
-1.00029
-0.000446757
-1.00119
-0.00044804
-1.00203
-0.000443405
-1.00281
-0.000434233
-1.00354
-0.000419229
-1.00421
-0.000399807
-1.00482
-0.000374944
-1.00538
-0.000346038
-1.00589
-0.000312375
-1.00633
-0.000275285
-1.00673
-0.000234372
-1.00706
-0.000190864
-1.00734
-0.000144672
-1.00757
-9.68721e-05
-1.00773
-4.76799e-05
-1.00785
2.03201e-06
-1.0079
5.17744e-05
-1.0079
0.00010091
-1.00785
0.000148715
-1.00773
0.000194825
-1.00757
0.000238313
-1.00734
0.000279119
-1.00706
0.000316162
-1.00673
0.000349693
-1.00633
0.000378527
-1.00589
0.000403233
-1.00538
0.000422556
-1.00482
0.000437379
-1.00421
0.000446426
-1.00354
0.000450856
-1.00281
0.000449421
-1.00203
0.000443516
-1.00119
0.000431953
-1.00029
0.000416318
-0.999342
0.000395536
-0.998337
0.000371251
-0.997276
0.000342599
-0.99616
0.000311222
-0.99499
0.00027642
-0.993765
0.000239786
-0.992487
0.000200878
-0.991155
0.000161039
-0.98977
0.000120173
-0.988331
7.93455e-05
-0.986841
3.8688e-05
-0.985297
-0.996113
-2.87557e-05
-0.996086
-5.84918e-05
-0.985269
-8.80836e-05
-0.986813
-0.000117725
-0.988304
-0.000146345
-0.989742
-0.000174455
-0.991128
-0.000200667
-0.992461
-0.000225691
-0.993741
-0.000248005
-0.994967
-0.000268581
-0.99614
-0.000285659
-0.997258
-0.000300516
-0.998321
-0.000311355
-0.99933
-0.000319509
-1.00028
-0.000323302
-1.00118
-0.000324165
-1.00202
-0.000320515
-1.00281
-0.000313831
-1.00354
-0.000302727
-1.00422
-0.000288653
-1.00484
-0.000270475
-1.0054
-0.000249577
-1.00591
-0.000225091
-1.00636
-0.000198302
-1.00675
-0.000168638
-1.00709
-0.000137223
-1.00737
-0.000103795
-1.0076
-6.92883e-05
-1.00777
-3.37286e-05
-1.00788
2.16707e-06
-1.00793
3.80942e-05
-1.00793
7.35952e-05
-1.00788
0.000108106
-1.00777
0.000141448
-1.0076
0.000172841
-1.00737
0.000202393
-1.00709
0.000229133
-1.00675
0.000253482
-1.00636
0.000274305
-1.00591
0.000292323
-1.0054
0.000306297
-1.00484
0.000317218
-1.00422
0.000323779
-1.00354
0.000327225
-1.00281
0.000326217
-1.00202
0.0003222
-1.00118
0.000313881
-1.00028
0.000302799
-0.999329
0.000287755
-0.998321
0.000270413
-0.997257
0.000249627
-0.996139
0.000227028
-0.994967
0.00020177
-0.993741
0.000175255
-0.992461
0.000146898
-0.991127
0.000117979
-0.989741
8.81271e-05
-0.988303
5.83229e-05
-0.986813
2.86056e-05
-0.985269
-0.996085
-2.03726e-05
-0.996068
-4.30767e-05
-0.985252
-6.516e-05
-0.986796
-8.71793e-05
-0.988286
-0.000108249
-0.989725
-0.000128977
-0.991111
-0.000148084
-0.992445
-0.0001665
-0.993726
-0.000182636
-0.994954
-0.000197681
-0.996128
-0.000209937
-0.997247
-0.000220743
-0.998313
-0.000228341
-0.999324
-0.000234241
-1.00028
-0.000236682
-1.00118
-0.000237229
-1.00203
-0.000234247
-1.00281
-0.000229292
-1.00355
-0.000220899
-1.00423
-0.000210573
-1.00485
-0.000197067
-1.00541
-0.000181782
-1.00592
-0.000163736
-1.00638
-0.000144176
-1.00677
-0.000122405
-1.00711
-9.94909e-05
-1.0074
-7.50247e-05
-1.00762
-4.98582e-05
-1.00779
-2.38814e-05
-1.00791
2.30356e-06
-1.00796
2.85209e-05
-1.00796
5.44356e-05
-1.0079
7.96046e-05
-1.00779
0.000103979
-1.00762
0.000126867
-1.00739
0.000148518
-1.00711
0.000168022
-1.00677
0.00018592
-1.00638
0.000201121
-1.00592
0.000214452
-1.00541
0.000224666
-1.00485
0.000232858
-1.00423
0.000237673
-1.00355
0.000240428
-1.00281
0.000239713
-1.00202
0.00023702
-1.00118
0.000230923
-1.00028
0.000223046
-0.999323
0.000212013
-0.998312
0.000199448
-0.997247
0.00018414
-0.996127
0.000167662
-0.994953
0.000148947
-0.993725
0.000129468
-0.992444
0.000108422
-0.99111
8.69963e-05
-0.989723
6.47626e-05
-0.988285
4.26055e-05
-0.986794
2.03728e-05
-0.98525
-0.996067
-1.58451e-05
-0.996053
-3.27382e-05
-0.985236
-4.92056e-05
-0.98678
-6.57404e-05
-0.98827
-8.14291e-05
-0.989709
-9.6958e-05
-0.991096
-0.000111055
-0.992431
-0.000124785
-0.993712
-0.000136558
-0.994941
-0.000147708
-0.996116
-0.00015652
-0.997237
-0.000164474
-0.998304
-0.000169777
-0.999317
-0.00017407
-1.00027
-0.000175539
-1.00118
-0.000175861
-1.00202
-0.000173332
-1.00281
-0.000169594
-1.00355
-0.000163102
-1.00423
-0.000155418
-1.00485
-0.000145201
-1.00542
-0.000133879
-1.00593
-0.000120368
-1.00639
-0.000105915
-1.00678
-8.97126e-05
-1.00713
-7.28014e-05
-1.00741
-5.46622e-05
-1.00764
-3.60947e-05
-1.00781
-1.68833e-05
-1.00792
2.4423e-06
-1.00798
2.18015e-05
-1.00798
4.09478e-05
-1.00792
5.95174e-05
-1.00781
7.75607e-05
-1.00764
9.4443e-05
-1.00741
0.00011052
-1.00713
0.000124914
-1.00678
0.000138271
-1.00639
0.000149505
-1.00593
0.000159541
-1.00542
0.000167111
-1.00485
0.000173398
-1.00423
0.000176995
-1.00355
0.000179296
-1.00281
0.00017881
-1.00202
0.000177092
-1.00118
0.000172612
-1.00027
0.000167039
-0.999316
0.000158875
-0.998304
0.000149771
-0.997237
0.000138385
-0.996116
0.000126293
-0.99494
0.0001123
-0.993712
9.78615e-05
-0.99243
8.20521e-05
-0.991095
6.60225e-05
-0.989708
4.9244e-05
-0.988269
3.25372e-05
-0.986779
1.56818e-05
-0.985235
-0.996052
-1.14198e-05
-0.996044
-2.50325e-05
-0.985228
-3.79038e-05
-0.986771
-5.07384e-05
-0.988262
-6.2648e-05
-0.989701
-7.45561e-05
-0.991088
-8.51461e-05
-0.992423
-9.55535e-05
-0.993705
-0.000104265
-0.994935
-0.00011269
-0.996111
-0.00011903
-0.997233
-0.000124985
-0.998301
-0.000128667
-0.999314
-0.000131795
-1.00027
-0.000132561
-1.00118
-0.000132713
-1.00203
-0.000130476
-1.00282
-0.000127586
-1.00356
-0.000122413
-1.00424
-0.000116577
-1.00486
-0.00010866
-1.00543
-0.000100126
-1.00594
-8.97938e-05
-1.0064
-7.89362e-05
-1.0068
-6.66496e-05
-1.00714
-5.39624e-05
-1.00742
-4.02775e-05
-1.00765
-2.63603e-05
-1.00782
-1.19117e-05
-1.00794
2.5811e-06
-1.00799
1.71085e-05
-1.00799
3.14887e-05
-1.00794
4.54066e-05
-1.00782
5.89899e-05
-1.00765
7.16445e-05
-1.00742
8.37973e-05
-1.00714
9.45899e-05
-1.0068
0.000104758
-1.0064
0.000113195
-1.00594
0.000120918
-1.00543
0.000126628
-1.00486
0.000131579
-1.00424
0.000134313
-1.00355
0.000136301
-1.00282
0.000135965
-1.00202
0.000134923
-1.00118
0.000131581
-1.00027
0.000127596
-0.999314
0.000121395
-0.9983
0.000114721
-0.997232
0.000106014
-0.99611
9.69329e-05
-0.994934
8.62032e-05
-0.993704
7.52096e-05
-0.992422
6.29542e-05
-0.991087
5.06488e-05
-0.989699
3.75599e-05
-0.98826
2.45639e-05
-0.98677
1.13932e-05
-0.985226
-0.996043
-9.53444e-06
-0.996035
-2.01616e-05
-0.985219
-3.02003e-05
-0.986762
-4.03144e-05
-0.988252
-4.9601e-05
-0.989692
-5.89361e-05
-0.991079
-6.70237e-05
-0.992415
-7.51469e-05
-0.993697
-8.16592e-05
-0.994927
-8.81336e-05
-0.996104
-9.27662e-05
-0.997227
-9.72805e-05
-0.998296
-9.97718e-05
-0.99931
-0.000102115
-1.00027
-0.000102349
-1.00117
-0.000102373
-1.00202
-0.000100327
-1.00282
-9.80257e-05
-1.00356
-9.37611e-05
-1.00424
-8.92279e-05
-1.00486
-8.29142e-05
-1.00543
-7.63378e-05
-1.00595
-6.82386e-05
-1.0064
-5.99091e-05
-1.0068
-5.03698e-05
-1.00715
-4.06628e-05
-1.00743
-3.01072e-05
-1.00766
-1.94624e-05
-1.00783
-8.36853e-06
-1.00795
2.72139e-06
-1.008
1.38472e-05
-1.008
2.48695e-05
-1.00795
3.55145e-05
-1.00783
4.59636e-05
-1.00766
5.5636e-05
-1.00743
6.50353e-05
-1.00715
7.32966e-05
-1.0068
8.12242e-05
-1.0064
8.77007e-05
-1.00595
9.38133e-05
-1.00543
9.82169e-05
-1.00486
0.000102253
-1.00424
0.000104397
-1.00356
0.00010619
-1.00282
0.000105984
-1.00202
0.000105474
-1.00117
0.000102924
-1.00027
0.000100134
-0.99931
9.53879e-05
-0.998295
9.04328e-05
-0.997226
8.36983e-05
-0.996103
7.68357e-05
-0.994927
6.84209e-05
-0.993697
5.9955e-05
-0.992414
5.03067e-05
-0.991078
4.06386e-05
-0.989691
3.02479e-05
-0.988252
1.99393e-05
-0.986761
9.36063e-06
-0.985218
-0.996034
-7.13891e-06
-0.996031
-1.64504e-05
-0.985214
-2.48498e-05
-0.986758
-3.32255e-05
-0.988248
-4.0716e-05
-0.989688
-4.83112e-05
-0.991075
-5.46845e-05
-0.992411
-6.12169e-05
-0.993694
-6.6214e-05
-0.994925
-7.135e-05
-0.996102
-7.47626e-05
-0.997225
-7.82831e-05
-0.998295
-7.99366e-05
-0.99931
-8.17041e-05
-1.00027
-8.15507e-05
-1.00118
-8.14704e-05
-1.00203
-7.9527e-05
-1.00282
-7.76206e-05
-1.00356
-7.39619e-05
-1.00424
-7.03168e-05
-1.00487
-6.50943e-05
-1.00544
-5.98661e-05
-1.00595
-5.32962e-05
-1.00641
-4.67133e-05
-1.00681
-3.90677e-05
-1.00715
-3.14195e-05
-1.00744
-2.30264e-05
-1.00767
-1.4648e-05
-1.00784
-5.87337e-06
-1.00796
2.86041e-06
-1.00801
1.16313e-05
-1.00801
2.03308e-05
-1.00796
2.87085e-05
-1.00784
3.69894e-05
-1.00767
4.45997e-05
-1.00744
5.20973e-05
-1.00715
5.86065e-05
-1.00681
6.49945e-05
-1.00641
7.01149e-05
-1.00595
7.51236e-05
-1.00544
7.86284e-05
-1.00487
8.20432e-05
-1.00424
8.37784e-05
-1.00356
8.54493e-05
-1.00282
8.53283e-05
-1.00203